# vtk DataFile Version 2.0
Riceball DEM simulation
ASCII
DATASET UNSTRUCTURED_GRID
POINTS 1022 float
100.000000 100.000000 75.002500	100.000000 186.364000 75.002500	100.000000 272.727000 75.002500	100.000000 359.091000 75.002500	100.000000 445.455000 75.002500	100.000000 531.818000 75.002500	100.000000 618.182000 75.002500	100.000000 704.546000 75.002500	100.000000 790.909000 75.002500	100.000000 877.273000 75.002500	100.000000 963.636000 75.002500	100.000000 1050.000000 75.002500	100.000000 1136.360000 75.002500	100.000000 1222.730000 75.002500	100.000000 1309.090000 75.002500	100.000000 1395.450000 75.002500	100.000000 1481.820000 75.002500	100.000000 1568.180000 75.002500	100.000000 1654.550000 75.002500	100.000000 1740.910000 75.002500	100.000000 1827.270000 75.002500	100.000000 1913.640000 75.002500	100.000000 2000.000000 75.002500	14900.000000 100.000000 75.002500	14900.000000 186.364000 75.002500	14900.000000 272.727000 75.002500	14900.000000 359.091000 75.002500	14900.000000 445.455000 75.002500	14900.000000 531.818000 75.002500	14900.000000 618.182000 75.002500	14900.000000 704.546000 75.002500	14900.000000 790.909000 75.002500	14900.000000 877.273000 75.002500	14900.000000 963.636000 75.002500	14900.000000 1050.000000 75.002500	14900.000000 1136.360000 75.002500	14900.000000 1222.730000 75.002500	14900.000000 1309.090000 75.002500	14900.000000 1395.450000 75.002500	14900.000000 1481.820000 75.002500	14900.000000 1568.180000 75.002500	14900.000000 1654.550000 75.002500	14900.000000 1740.910000 75.002500	14900.000000 1827.270000 75.002500	14900.000000 1913.640000 75.002500	14900.000000 2000.000000 75.002500	200.000000 100.000000 75.002500	282.857000 100.000000 75.002500	365.714000 100.000000 75.002500	448.571000 100.000000 75.002500	531.429000 100.000000 75.002500	614.286000 100.000000 75.002500	697.143000 100.000000 75.002500	780.000000 100.000000 75.002500	862.857000 100.000000 75.002500	945.714000 100.000000 75.002500	1028.570000 100.000000 75.002500	1111.430000 100.000000 75.002500	1194.290000 100.000000 75.002500	1277.140000 100.000000 75.002500	1360.000000 100.000000 75.002500	1442.860000 100.000000 75.002500	1525.710000 100.000000 75.002500	1608.570000 100.000000 75.002500	1691.430000 100.000000 75.002500	1774.290000 100.000000 75.002500	1857.140000 100.000000 75.002500	1940.000000 100.000000 75.002500	2022.860000 100.000000 75.002500	2105.710000 100.000000 75.002500	2188.570000 100.000000 75.002500	2271.430000 100.000000 75.002500	2354.290000 100.000000 75.002500	2437.140000 100.000000 75.002500	2520.000000 100.000000 75.002500	2602.860000 100.000000 75.002500	2685.710000 100.000000 75.002500	2768.570000 100.000000 75.002500	2851.430000 100.000000 75.002500	2934.290000 100.000000 75.002500	3017.140000 100.000000 75.002500	3100.000000 100.000000 75.002500	3182.860000 100.000000 75.002500	3265.720000 100.000000 75.002500	3348.570000 100.000000 75.002500	3431.430000 100.000000 75.002500	3514.290000 100.000000 75.002500	3597.140000 100.000000 75.002500	3680.000000 100.000000 75.002500	3762.860000 100.000000 75.002500	3845.720000 100.000000 75.002500	3928.570000 100.000000 75.002500	4011.430000 100.000000 75.002500	4094.290000 100.000000 75.002500	4177.140000 100.000000 75.002500	4260.000000 100.000000 75.002500	4342.860000 100.000000 75.002500	4425.710000 100.000000 75.002500	4508.570000 100.000000 75.002500	4591.430000 100.000000 75.002500	4674.290000 100.000000 75.002500	4757.140000 100.000000 75.002500	4840.000000 100.000000 75.002500	4922.860000 100.000000 75.002500	5005.710000 100.000000 75.002500	5088.570000 100.000000 75.002500	5171.430000 100.000000 75.002500	5254.280000 100.000000 75.002500	5337.140000 100.000000 75.002500	5420.000000 100.000000 75.002500	5502.850000 100.000000 75.002500	5585.710000 100.000000 75.002500	5668.570000 100.000000 75.002500	5751.430000 100.000000 75.002500	5834.280000 100.000000 75.002500	5917.140000 100.000000 75.002500	6000.000000 100.000000 75.002500	6082.850000 100.000000 75.002500	6165.710000 100.000000 75.002500	6248.570000 100.000000 75.002500	6331.420000 100.000000 75.002500	6414.280000 100.000000 75.002500	6497.140000 100.000000 75.002500	6580.000000 100.000000 75.002500	6662.850000 100.000000 75.002500	6745.710000 100.000000 75.002500	6828.570000 100.000000 75.002500	6911.420000 100.000000 75.002500	6994.280000 100.000000 75.002500	7077.140000 100.000000 75.002500	7159.990000 100.000000 75.002500	7242.850000 100.000000 75.002500	7325.710000 100.000000 75.002500	7408.560000 100.000000 75.002500	7491.420000 100.000000 75.002500	7574.280000 100.000000 75.002500	7657.140000 100.000000 75.002500	7739.990000 100.000000 75.002500	7822.850000 100.000000 75.002500	7905.710000 100.000000 75.002500	7988.560000 100.000000 75.002500	8071.420000 100.000000 75.002500	8154.280000 100.000000 75.002500	8237.130000 100.000000 75.002500	8319.990000 100.000000 75.002500	8402.850000 100.000000 75.002500	8485.710000 100.000000 75.002500	8568.560000 100.000000 75.002500	8651.420000 100.000000 75.002500	8734.280000 100.000000 75.002500	8817.140000 100.000000 75.002500	8899.990000 100.000000 75.002500	8982.850000 100.000000 75.002500	9065.710000 100.000000 75.002500	9148.570000 100.000000 75.002500	9231.420000 100.000000 75.002500	9314.280000 100.000000 75.002500	9397.140000 100.000000 75.002500	9480.000000 100.000000 75.002500	9562.850000 100.000000 75.002500	9645.710000 100.000000 75.002500	9728.570000 100.000000 75.002500	9811.420000 100.000000 75.002500	9894.280000 100.000000 75.002500	9977.140000 100.000000 75.002500	10060.000000 100.000000 75.002500	10142.900000 100.000000 75.002500	10225.700000 100.000000 75.002500	10308.600000 100.000000 75.002500	10391.400000 100.000000 75.002500	10474.300000 100.000000 75.002500	10557.100000 100.000000 75.002500	10640.000000 100.000000 75.002500	10722.900000 100.000000 75.002500	10805.700000 100.000000 75.002500	10888.600000 100.000000 75.002500	10971.400000 100.000000 75.002500	11054.300000 100.000000 75.002500	11137.100000 100.000000 75.002500	11220.000000 100.000000 75.002500	11302.900000 100.000000 75.002500	11385.700000 100.000000 75.002500	11468.600000 100.000000 75.002500	11551.400000 100.000000 75.002500	11634.300000 100.000000 75.002500	11717.100000 100.000000 75.002500	11800.000000 100.000000 75.002500	11882.900000 100.000000 75.002500	11965.700000 100.000000 75.002500	12048.600000 100.000000 75.002500	12131.400000 100.000000 75.002500	12214.300000 100.000000 75.002500	12297.100000 100.000000 75.002500	12380.000000 100.000000 75.002500	12462.900000 100.000000 75.002500	12545.700000 100.000000 75.002500	12628.600000 100.000000 75.002500	12711.400000 100.000000 75.002500	12794.300000 100.000000 75.002500	12877.100000 100.000000 75.002500	12960.000000 100.000000 75.002500	13042.900000 100.000000 75.002500	13125.700000 100.000000 75.002500	13208.600000 100.000000 75.002500	13291.400000 100.000000 75.002500	13374.300000 100.000000 75.002500	13457.200000 100.000000 75.002500	13540.000000 100.000000 75.002500	13622.900000 100.000000 75.002500	13705.700000 100.000000 75.002500	13788.600000 100.000000 75.002500	13871.400000 100.000000 75.002500	13954.300000 100.000000 75.002500	14037.200000 100.000000 75.002500	14120.000000 100.000000 75.002500	14202.900000 100.000000 75.002500	14285.700000 100.000000 75.002500	14368.600000 100.000000 75.002500	14451.400000 100.000000 75.002500	14534.300000 100.000000 75.002500	14617.200000 100.000000 75.002500	14700.000000 100.000000 75.002500	7735.080000 466.269000 75.002500	8387.680000 620.814000 75.002500	6929.790000 651.962000 75.002500	7899.240000 195.155000 75.002500	6314.550000 447.029000 75.002500	9263.910000 392.754000 75.002500	8205.430000 343.482000 75.002500	7657.570000 659.042000 75.002500	9602.100000 238.096000 75.002500	5206.650000 190.118000 75.002500	8167.630000 567.224000 75.002500	6950.740000 184.803000 75.002500	8051.150000 554.590000 75.002500	8030.660000 187.809000 75.002500	5558.520000 192.757000 75.002500	6485.240000 196.328000 75.002500	8726.490000 455.307000 75.002500	7531.130000 187.477000 75.002500	8306.790000 405.433000 75.002500	4756.790000 229.787000 75.002500	8668.130000 292.185000 75.002500	6074.320000 228.592000 75.002500	7712.220000 336.867000 75.002500	7038.420000 602.598000 75.002500	8218.450000 672.586000 75.002500	5461.370000 308.749000 75.002500	9242.880000 228.299000 75.002500	8019.910000 331.978000 75.002500	8368.170000 305.418000 75.002500	6939.090000 535.806000 75.002500	6107.550000 338.943000 75.002500	8161.060000 451.091000 75.002500	9060.360000 435.164000 75.002500	8787.300000 299.687000 75.002500	6501.340000 312.854000 75.002500	8427.860000 403.930000 75.002500	7392.550000 511.544000 75.002500	8192.950000 185.793000 75.002500	8371.540000 505.338000 75.002500	7627.550000 423.100000 75.002500	7150.570000 293.432000 75.002500	9469.880000 195.069000 75.002500	9353.000000 187.857000 75.002500	7507.720000 489.636000 75.002500	8497.940000 497.454000 75.002500	8499.960000 195.815000 75.002500	6733.050000 365.254000 75.002500	6851.610000 356.236000 75.002500	8305.570000 209.081000 75.002500	6953.590000 415.105000 75.002500	7747.190000 581.564000 75.002500	5441.040000 193.893000 75.002500	7627.650000 252.368000 75.002500	8616.590000 187.234000 75.002500	5703.630000 187.469000 75.002500	8029.200000 670.144000 75.002500	7782.590000 187.604000 75.002500	6955.000000 298.596000 75.002500	7045.010000 487.113000 75.002500	6620.390000 186.496000 75.002500	6798.460000 463.944000 75.002500	6731.360000 232.018000 75.002500	7288.040000 458.231000 75.002500	6206.990000 399.575000 75.002500	7061.990000 218.140000 75.002500	8606.930000 393.772000 75.002500	8976.810000 353.533000 75.002500	7185.280000 403.530000 75.002500	8009.110000 446.283000 75.002500	8648.010000 541.196000 75.002500	8914.890000 194.460000 75.002500	7245.790000 227.393000 75.002500	5038.070000 266.729000 75.002500	8735.350000 195.490000 75.002500	6847.820000 236.870000 75.002500	5820.090000 286.543000 75.0
[...]
POINT_DATA 1022
SCALARS UDOT.x float
LOOKUP_TABLE default
0.000000	0.000000	0.000000	0.000000	0.000000	0.000000	0.000000	0.000000	0.000000	0.000000	0.000000	0.000000	0.000000	0.000000	0.000000	0.000000	0.000000	0.000000	0.000000	0.000000	0.000000	0.000000	0.000000	0.000000	0.000000	0.000000	0.000000	0.000000	0.000000	0.000000	0.000000	0.000000	0.000000	0.000000	0.000000	0.000000	0.000000	0.000000	0.000000	0.000000	0.000000	0.000000	0.000000	0.000000	0.000000	0.000000	0.000000	0.000000	0.000000	0.000000	0.000000	0.000000	0.000000	0.000000	0.000000	0.000000	0.000000	0.000000	0.000000	0.000000	0.000000	0.000000	0.000000	0.000000	0.000000	0.000000	0.000000	0.000000	0.000000	0.000000	0.000000	0.000000	0.000000	0.000000	0.000000	0.000000	0.000000	0.000000	0.000000	0.000000	0.000000	0.000000	0.000000	0.000000	0.000000	0.000000	0.000000	0.000000	0.000000	0.000000	0.000000	0.000000	0.000000	0.000000	0.000000	0.000000	0.000000	0.000000	0.000000	0.000000	0.000000	0.000000	0.000000	0.000000	0.000000	0.000000	0.000000	0.000000	0.000000	0.000000	0.000000	0.000000	0.000000	0.000000	0.000000	0.000000	0.000000	0.000000	0.000000	0.000000	0.000000	0.000000	0.000000	0.000000	0.000000	0.000000	0.000000	0.000000	0.000000	0.000000	0.000000	0.000000	0.000000	0.000000	0.000000	0.000000	0.000000	0.000000	0.000000	0.000000	0.000000	0.000000	0.000000	0.000000	0.000000	0.000000	0.000000	0.000000	0.000000	0.000000	0.000000	0.000000	0.000000	0.000000	0.000000	0.000000	0.000000	0.000000	0.000000	0.000000	0.000000	0.000000	0.000000	0.000000	0.000000	0.000000	0.000000	0.000000	0.000000	0.000000	0.000000	0.000000	0.000000	0.000000	0.000000	0.000000	0.000000	0.000000	0.000000	0.000000	0.000000	0.000000	0.000000	0.000000	0.000000	0.000000	0.000000	0.000000	0.000000	0.000000	0.000000	0.000000	0.000000	0.000000	0.000000	0.000000	0.000000	0.000000	0.000000	0.000000	0.000000	0.000000	0.000000	0.000000	0.000000	0.000000	0.000000	0.000000	0.000000	0.000000	0.000000	0.000000	0.000000	0.000000	0.000000	0.000000	0.000000	0.000000	0.000000	0.000000	0.000000	0.000000	0.000001	-0.000005	0.000001	0.000000	0.000000	0.000006	-0.000001	-0.000001	0.000000	-0.000002	-0.000005	0.000002	-0.000002	-0.000001	0.000004	0.000000	0.000001	0.000000	-0.000002	0.000001	0.000000	-0.000000	-0.000000	0.000001	-0.000003	0.000003	-0.000003	0.000002	0.000001	0.000000	-0.000002	-0.000001	-0.000001	0.000000	-0.000001	-0.000002	-0.000003	-0.000000	-0.000003	-0.000001	-0.000002	0.000001	-0.000001	0.000001	-0.000000	-0.000001	0.000001	0.000001	-0.000000	0.000000	-0.000001	-0.000000	0.000001	-0.000001	0.000001	-0.000001	0.000001	0.000002	0.000001	0.000000	0.000003	0.000001	-0.000001	-0.000000	-0.000000	-0.000001	0.000003	-0.000001	0.000000	-0.000000	-0.000001	-0.000000	-0.000004	-0.000001	-0.000001	0.000005	-0.000000	-0.000000	-0.000003	0.000000	0.000003	-0.000003	-0.000001	0.000001	-0.000000	0.000001	0.000001	-0.000000	0.000001	-0.000001	0.000001	-0.000002	0.000000	-0.000000	0.000000	0.000001	-0.000001	0.000000	0.000004	0.000000	0.000003	-0.000001	-0.000002	0.000004	0.000001	-0.000001	-0.000001	-0.000006	-0.000003	-0.000000	-0.000001	0.000003	0.000001	-0.000000	0.000001	0.000000	0.000002	-0.000001	0.000002	0.000001	0.000004	0.000002	-0.000002	-0.000003	0.000003	0.000002	-0.000003	0.000001	0.000004	0.000001	0.000000	0.000003	-0.000002	-0.000006	-0.000004	0.000001	-0.000002	-0.000003	0.000001	-0.000002	-0.000003	0.000001	0.000006	0.000000	-0.000001	0.000000	-0.000001	0.000000	-0.000000	-0.000003	0.000001	0.000002	0.000000	-0.000002	-0.000000	-0.000000	0.000004	0.000000	-0.000000	-0.000003	-0.000004	0.000001	-0.000000	0.000001	0.000000	-0.000001	-0.000002	0.000001	0.000001	-0.000003	0.000001	0.000000	-0.000003	-0.000001	-0.000009	0.000002	-0.000001	0.000001	-0.000004	0.000004	0.000001	-0.000001	0.000003	-0.000001	-0.000001	0.000000	-0.000000	0.000000	0.000002	-0.000001	0.000002	-0.000004	-0.000000	0.000003	-0.000001	0.000002	0.000002	-0.000001	0.000002	-0.000000	-0.000000	-0.000000	0.000001	0.000001	0.000001	0.000001	-0.000000	0.000004	0.000001	-0.000001	0.000002	0.000001	-0.000001	-0.000000	-0.000002	-0.000001	0.000001	-0.000003	-0.000002	0.000001	-0.000002	-0.000000	0.000000	0.000000	0.000001	-0.000002	-0.000001	0.000001	0.000001	0.000001	0.000001	0.000000	0.000004	0.000000	0.000000	0.000002	-0.000004	0.000002	-0.000001	-0.000000	0.000000	0.000001	0.000000	0.000002	-0.000001	0.000001	0.000001	-0.000003	0.000000	0.000001	0.000000	-0.000002	-0.000005	0.000002	-0.000002	0.000000	0.000001	-0.000006	-0.000000	0.000002	0.000000	-0.000005	-0.000001	-0.000000	-0.000002	-0.000001	-0.000002	-0.000000	0.000001	0.000000	0.000001	0.000000	0.000004	-0.000002	0.000002	-0.000003	0.000000	0.000001	-0.000001	0.000000	0.000000	0.000000	-0.000000	-0.000001	-0.000000	-0.000001	0.000001	-0.000000	0.000000	-0.000000	-0.000000	0.000003	0.000001	-0.000001	-0.000000	0.000001	-0.000002	0.000003	0.000001	-0.000000	0.000002	0.000002	0.000004	-0.000003	0.000000	0.000000	0.000001	-0.000001	-0.000003	0.000002	-0.000001	-0.000000	-0.000001	0.000002	0.000000	-0.000001	0.000002	-0.000000	0.000003	-0.000000	0.000001	-0.000000	-0.000000	-0.000003	0.000003	-0.000001	-0.000006	0.000001	-0.000001	-0.000003	0.000002	-0.000001	0.000003	0.000001	-0.000002	0.000000	-0.000000	0.000003	0.000000	0.000006	0.000000	0.000004	-0.000000	0.000001	0.000003	0.000002	0.000000	0.000001	0.000001	0.000001	0.000000	-0.000001	-0.000003	0.000000	-0.000001	-0.000002	0.000001	-0.000005	-0.000002	0.000000	0.000001	-0.000000	0.000000	-0.000002	-0.000002	-0.000001	0.000000	0.000001	-0.000003	-0.000001	-0.000001	0.000003	0.000002	-0.000006	0.000002	-0.000001	-0.000000	-0.000002	-0.000001	-0.000001	0.000002	-0.000001	-0.000002	0.000003	-0.000000	-0.000002	-0.000002	-0.000000	-0.000003	-0.000002	-0.000001	0.000002	-0.000001	0.000004	-0.000003	-0.000000	-0.000002	-0.000000	0.000001	-0.000002	0.000004	0.000006	0.000004	-0.000003	0.000001	-0.000000	0.000006	0.000000	0.000001	0.000003	-0.000002	0.000001	0.000001	0.000006	0.000003	-0.000000	-0.000001	0.000004	-0.000001	0.000006	-0.000002	0.000004	0.000002	-0.000006	-0.000005	-0.000000	-0.000001	-0.000003	0.000000	0.000001	-0.000001	0.000001	-0.000003	0.000001	0.000001	0.000001	-0.000001	-0.000004	0.000000	0.000001	-0.000006	0.000001	-0.000003	0.000001	-0.000003	-0.000000	0.000005	0.000003	0.000003	0.000001	-0.000001	-0.000001	0.000001	-0.000001	-0.000001	-0.000006	-0.000003	-0.000000	-0.000006	0.000001	-0.000002	0.000001	-0.000001	0.000001	0.000003	-0.000006	-0.000006	-0.000003	-0.000001	-0.000004	0.000001	-0.000002	-0.000001	0.000000	0.000005	-0.000003	0.000004	-0.000001	0.000000	0.000002	0.000001	0.000005	-0.000001	0.000001	-0.000002	-0.000000	-0.000000	0.000006	-0.000001	0.000006	-0.000001	0.000001	0.000006	-0.000001	-0.000000	0.000001	0.000003	-0.000001	-0.000003	-0.000002	0.000003	0.000006	0.000003	-0.000002	0.000003	0.000000	-0.000003	-0.000000	0.000001	0.000002	-0.000006	-0.000000	-0.000000	0.000003	-0.000000	-0.000005	-0.000000	0.000001	-0.000000	0.000006	-0.000001	0.000001	0.000002	0.000001	-0.000000	0.000002	0.000000	-0.000000	-0.000004	-0.000000	-0.000002	-0.000000	-0.000000	0.000000	-0.000001	0.000001	0.000003	0.000000	-0.000001	0.000001	-0.000001	0.000005	-0.000004	0.000002	-0.000001	-0.000003	0.000002	0.000001	0.000005	0.000005	-0.000001	0.000003	0.000002	-0.000002	0.000001	-0.000001	0.000002	-0.000003	-0.000000	-0.000003	-0.000002	-0.000001	0.000001	0.000003	0.000000	0.000000	-0.000000	-0.000000	0.000000	0.000002	0.000001	-0.000001	0.000001	-0.000000	0.000003	0.000003	-0.000002	0.000005	0.000006	0.000002	-0.000001	0.000001	0.000000	-0.000000	0.000002	-0.000001	-0.000005	0.000005	0.000000	-0.000006	-0.000001	0.000000	0.000005	-0.000001	-0.000001	-0.000001	0.000000	0.000002	-0.000000	0.000006	-0.000001	-0.000000	0.000006	0.000000	-0.000006	-0.000001	0.000006	-0.000005	0.000006	-0.000006	-0.000006	-0.000002	0.000002	-0.000003	0.000001	0.000001	0.000005	0.000006	0.000002	0.000001	0.000006	0.000006	-0.000006	0.000006	0.000003	-0.000006	-0.000001	-0.000003	0.000002	0.000005	0.000001	-0.000006	0.000002	-0.000006	0.000006	-0.000006	0.000006	0.000003	-0.000001	0.000006	-0.000005	-0.000000	0.000000	0.000003	0.000005	0.000006	-0.000003	-0.000006	0.000002	0.000003	-0.000005	-0.000001	0.000006	0.000002	0.000000	-0.000005	0.000003	0.000000	0.000002	-0.000006	0.000001	-0.000001	0.000005	-0.000003	0.000001	0.000000	-0.000005	0.000001	0.000003	-0.000001	0.000002	-0.000003	0.000004	0.000006	0.000001	-0.000001	0.000006	0.000002	0.000006	0.000005	0.000000	0.000006	0.000006	0.000006	0.000006	0.000003	0.000003	-0.000002	0.000000	0.000002	0.000002	0.000002	0.000000	-0.000005	-0.000004	0.000006	0.000006	0.000006	-0.000000	-0.000003	0.000001	0.000001	0.000000	0.000005	0.000003	-0.000002	-0.000003	0.000004	-0.000004	0.000001	-0.000001	-0.000001	0.000004	-0.000000	-0.000004	0.000003	-0.000006	-0.000000	-0.000002	-0.000005	-0.000003	0.000005	-0.000005	0.000003	0.000000	0.000001	0.000005	0.000001	-0.000005	0.000002	0.000001	0.000000	0.000001	-0.000004	0.000001	0.000000	0.000006	0.000000	0.000005	0.000006	-0.000003	0.000006	0.000006	-0.000000	0.000000	-0.000000	-0.000002	-0.000001	-0.000003	-0.000006	0.000006	-0.000003	0.000006	0.000003	0.000004	0.000000	0.000002	0.000005	0.000003	0.000002	-0.000000	0.000006	0.000001	0.000006	0.000004	-0.000002	0.000003	0.000001	0.000001	-0.000001	-0.000001	0.000005	0.000005	0.000005	0.000005	0.000007	0.000006	0.000003	0.000006	0.000003	0.000006	0.000009	-0.000000	-0.000006	0.000000	-0.000000	0.000008	0.000005	0.000001	-0.000002	-0.000002	-0.000005	0.000003	-0.000001	-0.000006	-0.000001	0.000005	-0.000002	-0.000003	-0.000006	
SCALARS UDOT.y float
LOOKUP_TABLE default
0.000000	0.000000	0.000000	0.000000	0.000000	0.000000	0.000000	0.000000	0.000000	0.000000	0.000000	0.000000	0.000000	0.000000	0.000000	0.000000	0.000000	0.000000	0.000000	0.000000	0.000000	0.000000	0.000000	0.000000	0.000000	0.000000	0.000000	0.000000	0.000000	0.000000	0.000000	0.000000	0.000000	0.000000	0.000000	0.000000	0.000000	0.000000	0.000000	0.000000	0.000000	0.000000	0.000000	0.000000	0.000000	0.000000	0.000000	0.000000	0.000000	0.000000	0.000000	0.000000	0.000000	0.000000	0.000000	0.000000	0.000000	0.000000	0.000000	0.000000	0.000000	0.000000	0.000000	0.000000	0.000000	0.000000	0.000000	0.000000	0.000000	0.000000	0.000000	0.000000	0.000000	0.000000	0.000000	0.000000	0.000000	0.000000	0.000000	0.000000	0.000000	0.000000	0.000000	0.000000	0.000000	0.000000	0.000000	0.000000	0.000000	0.000000	0.000000	0.000000	0.000000	0.000000	0.000000	0.000000	0.000000	0.000000	0.000000	0.000000	0.000000	0.000000	0.000000	0.000000	0.000000	0.000000	0.000000	0.000000	0.000000	0.000000	0.000000	0.000000	0.000000	0.000000	0.000000	0.000000	0.000000	0.000000	0.000000	0.000000	0.000000	0.000000	0.000000	0.000000	0.000000	0.000000	0.000000	0.000000	0.000000	0.000000	0.000000	0.000000	0.000000	0.000000	0.000000	0.000000	0.000000	0.000000	0.000000	0.000000	0.000000	0.000000	0.000000	0.000000	0.000000	0.000000	0.000000	0.000000	0.000000	0.000000	0.000000	0.000000	0.000000	0.000000	0.000000	0.000000	0.000000	0.000000	0.000000	0.000000	0.000000	0.000000	0.000000	0.000000	0.000000	0.000000	0.000000	0.000000	0.000000	0.000000	0.000000	0.000000	0.000000	0.000000	0.000000	0.000000	0.000000	0.000000	0.000000	0.000000	0.000000	0.000000	0.000000	0.000000	0.000000	0.000000	0.000000	0.000000	0.000000	0.000000	0.000000	0.000000	0.000000	0.000000	0.000000	0.000000	0.000000	0.000000	0.000000	0.000000	0.000000	0.000000	0.000000	0.000000	0.000000	0.000000	0.000000	0.000000	0.000000	0.000000	0.000000	0.000000	0.000000	0.000000	0.000000	0.000000	0.000000	0.000000	0.000000	0.000000	0.000000	0.000000	0.000000	-0.000003	0.000001	0.000000	-0.000002	0.000001	-0.000000	0.000001	-0.000001	0.000001	0.000000	-0.000000	0.000003	-0.000003	-0.000002	-0.000000	0.000001	0.000000	-0.000002	-0.000003	-0.000001	-0.000001	-0.000000	-0.000001	0.000002	0.000000	-0.000000	0.000003	-0.000001	-0.000000	-0.000000	-0.000002	0.000002	-0.000001	0.000002	-0.000000	-0.000000	-0.000001	-0.000000	-0.000001	0.000001	-0.000000	0.000001	0.000003	0.000002	-0.000000	0.000000	-0.000001	0.000000	0.000002	0.000001	-0.000001	-0.000002	-0.000000	-0.000002	-0.000001	0.000001	0.000001	0.000001	0.000001	-0.000001	0.000000	-0.000000	0.000000	0.000001	0.000000	0.000003	-0.000001	0.000000	0.000001	0.000000	-0.000004	-0.000002	-0.000000	-0.000002	0.000004	0.000000	0.000000	0.000004	0.000001	-0.000001	-0.000001	0.000001	0.000001	0.000003	-0.000001	0.000001	-0.000002	-0.000001	0.000003	-0.000000	0.000001	-0.000000	0.000000	-0.000000	0.000001	0.000001	-0.000000	-0.000000	-0.000000	0.000002	-0.000001	-0.000000	0.000004	-0.000005	-0.000005	-0.000000	-0.000001	-0.000001	-0.000000	0.000000	0.000001	-0.000003	0.000001	-0.000000	-0.000000	-0.000000	0.000004	-0.000001	-0.000003	0.000002	-0.000001	-0.000000	0.000005	0.000000	0.000002	0.000001	0.000003	0.000000	0.000000	-0.000001	0.000002	-0.000002	-0.000002	-0.000002	0.000002	-0.000002	-0.000001	0.000002	0.000001	0.000002	0.000001	-0.000000	-0.000000	0.000001	0.000001	0.000002	0.000003	-0.000001	0.000001	0.000002	-0.000002	-0.000001	-0.000003	-0.000001	0.000001	0.000002	0.000002	0.000001	-0.000003	0.000001	-0.000002	-0.000000	-0.000002	0.000001	0.000004	0.000002	-0.000001	-0.000000	-0.000001	-0.000002	0.000005	0.000000	0.000002	-0.000002	0.000002	0.000001	0.000000	0.000003	0.000002	-0.000001	0.000001	0.000000	0.000001	0.000000	-0.000000	-0.000001	0.000005	0.000002	0.000001	-0.000000	-0.000000	0.000003	0.000002	0.000003	0.000000	-0.000003	0.000001	0.000003	-0.000001	0.000001	0.000005	0.000004	-0.000003	0.000001	-0.000002	-0.000002	-0.000001	0.000000	0.000001	-0.000002	-0.000000	0.000001	0.000000	-0.000002	0.000000	0.000000	0.000000	-0.000001	-0.000000	0.000001	0.000001	-0.000000	0.000001	0.000002	0.000002	0.000003	0.000001	-0.000002	0.000005	0.000003	0.000003	-0.000001	0.000001	-0.000000	0.000003	-0.000003	-0.000006	-0.000002	-0.000002	-0.000001	-0.000001	0.000003	0.000002	-0.000006	0.000001	-0.000001	0.000000	0.000000	0.000001	-0.000000	0.000002	0.000001	0.000004	-0.000002	-0.000000	0.000000	-0.000006	0.000001	-0.000000	-0.000002	-0.000002	0.000002	0.000004	0.000003	-0.000001	0.000001	-0.000000	0.000000	0.000002	-0.000003	0.000001	-0.000002	-0.000003	-0.000001	0.000004	0.000001	0.000003	0.000002	-0.000000	0.000001	-0.000000	-0.000003	0.000001	0.000002	-0.000003	0.000004	-0.000001	0.000001	0.000001	-0.000000	-0.000006	0.000001	0.000000	-0.000002	0.000003	0.000000	-0.000000	-0.000005	0.000000	-0.000002	-0.000002	-0.000013	0.000003	-0.000002	0.000002	0.000002	-0.000002	-0.000004	-0.000001	0.000001	-0.000003	0.000000	-0.000004	-0.000002	-0.000002	0.000001	0.000001	0.000000	0.000000	0.000000	0.000001	-0.000000	-0.000002	-0.000006	-0.000001	0.000003	-0.000001	0.000001	0.000001	-0.000000	0.000002	0.000001	0.000003	-0.000003	-0.000001	0.000001	0.000005	-0.000002	0.000001	0.000001	0.000002	-0.000002	-0.000001	0.000001	-0.000002	0.000001	0.000001	0.000002	0.000002	-0.000002	0.000000	0.000001	0.000001	0.000000	-0.000005	0.000002	-0.000004	0.000001	0.000002	0.000004	-0.000001	0.000002	0.000000	0.000006	0.000002	0.000004	0.000002	0.000001	-0.000001	-0.000003	-0.000000	0.000001	-0.000000	-0.000003	0.000004	0.000002	-0.000002	-0.000001	-0.000002	0.000006	0.000001	-0.000002	0.000003	0.000004	-0.000001	0.000001	-0.000004	0.000001	0.000004	0.000000	-0.000001	-0.000001	0.000003	-0.000005	0.000001	-0.000003	0.000001	0.000003	0.000003	0.000002	-0.000001	-0.000003	0.000004	0.000001	-0.000000	-0.000000	-0.000001	0.000001	-0.000003	-0.000000	0.000003	0.000001	0.000003	0.000002	-0.000001	-0.000001	0.000001	0.000000	-0.000002	-0.000000	-0.000004	0.000002	0.000003	0.000001	-0.000000	0.000001	-0.000000	-0.000001	-0.000001	0.000001	0.000002	0.000003	0.000003	0.000001	-0.000006	-0.000000	-0.000005	-0.000002	0.000002	-0.000002	-0.000000	0.000004	-0.000005	0.000001	-0.000001	0.000003	-0.000003	-0.000001	0.000000	-0.000001	-0.000000	0.000000	0.000001	0.000000	0.000001	-0.000002	-0.000002	0.000000	-0.000003	-0.000002	-0.000003	0.000005	-0.000001	0.000002	-0.000006	0.000001	-0.000001	0.000001	0.000003	0.000000	0.000001	-0.000002	0.000000	0.000001	-0.000001	0.000003	0.000002	0.000000	0.000002	0.000001	-0.000002	-0.000000	-0.000000	-0.000000	-0.000001	0.000003	-0.000004	0.000000	-0.000004	-0.000001	0.000005	-0.000001	0.000003	0.000000	-0.000003	-0.000001	0.000006	0.000000	-0.000000	0.000002	-0.000008	-0.000006	0.000002	0.000002	0.000003	-0.000001	-0.000001	0.000000	0.000004	0.000000	0.000002	0.000003	-0.000004	0.000003	0.000001	-0.000002	-0.000002	-0.000000	-0.000006	0.000002	0.000000	0.000001	-0.000002	-0.000001	-0.000003	0.000002	-0.000000	0.000001	0.000001	0.000004	0.000000	-0.000002	-0.000001	-0.000001	-0.000000	0.000005	0.000000	0.000000	-0.000001	-0.000001	0.000001	-0.000000	-0.000001	-0.000000	-0.000001	-0.000001	0.000001	-0.000003	-0.000001	-0.000002	0.000004	0.000000	0.000001	-0.000000	0.000001	0.000006	0.000003	-0.000001	-0.000000	-0.000001	0.000001	0.000001	-0.000002	0.000004	0.000003	0.000001	-0.000001	-0.000000	-0.000001	-0.000002	-0.000003	-0.000001	-0.000002	0.000005	-0.000003	-0.000004	0.000000	-0.000001	-0.000001	-0.000001	-0.000002	-0.000000	0.000002	-0.000002	-0.000003	-0.000001	-0.000002	0.000002	0.000002	-0.000004	-0.000003	-0.000006	-0.000002	0.000000	-0.000001	-0.000000	0.000003	-0.000002	0.000001	-0.000004	-0.000004	0.000006	-0.000003	-0.000001	-0.000004	-0.000001	-0.000000	-0.000004	0.000000	0.000003	-0.000005	-0.000000	0.000006	-0.000003	-0.000000	-0.000004	-0.000006	-0.000001	-0.000005	-0.000004	0.000002	-0.000001	-0.000002	-0.000006	0.000003	0.000003	-0.000003	-0.000000	-0.000002	0.000001	-0.000005	0.000002	0.000001	-0.000003	-0.000000	-0.000005	-0.000003	-0.000000	-0.000003	-0.000002	-0.000005	0.000001	0.000001	-0.000000	-0.000006	-0.000000	0.000000	-0.000005	-0.000006	-0.000005	-0.000003	0.000006	-0.000004	0.000002	-0.000006	-0.000005	-0.000006	0.000000	-0.000004	-0.000008	-0.000003	-0.000006	0.000001	0.000001	0.000002	-0.000001	-0.000003	-0.000000	0.000000	0.000006	0.000005	-0.000003	-0.000002	0.000001	0.000003	0.000002	0.000005	-0.000000	0.000001	-0.000002	-0.000000	0.000001	0.000006	0.000001	-0.000005	-0.000001	0.000005	0.000002	-0.000003	0.000001	-0.000001	-0.000003	0.000004	0.000002	0.000003	-0.000000	0.000001	-0.000006	-0.000006	0.000001	-0.000000	0.000006	-0.000004	0.000000	0.000004	0.000003	-0.000000	0.000000	0.000006	0.000001	0.000001	-0.000006	-0.000006	0.000002	-0.000005	0.000002	-0.000002	0.000001	0.000001	0.000002	-0.000003	0.000001	0.000001	0.000002	0.000001	0.000001	0.000003	0.000005	0.000000	-0.000004	0.000002	-0.000002	-0.000000	0.000001	-0.000001	0.000004	0.000006	-0.000003	-0.000001	0.000001	0.000001	-0.000001	0.000000	0.000001	-0.000001	-0.000004	-0.000003	-0.000001	-0.000002	0.000004	-0.000002	-0.000005	-0.000006	-0.000002	-0.000001	-0.000004	-0.000002	0.000002	0.000001	-0.000000	0.000001	0.000000	-0.000005	-0.000005	-0.000001	0.000001	-0.000001	-0.000003	-0.000003	-0.000006	-0.000006	-0.000004	-0.000004	-0.000007	0.000003	-0.000000	-0.000003	0.000000	-0.000003	-0.000002	-0.000005	-0.000000	-0.000001	0.000001	-0.000003	0.000004	0.000001	-0.000001	-0.000001	0.000000	-0.000000	-0.000005	0.000006	-0.000000	0.000001	0.000001	-0.000006	-0.000002	-0.000001	
SCALARS UDOT.z float
LOOKUP_TABLE default